<?xml version="1.0"?>
<VTKFile type="PolyData" version="0.1" byte_order="LittleEndian" compressor="vtkZLibDataCompressor">
	<PolyData>
		<Piece NumberOfPoints="2850" NumberOfVerts="0" NumberOfLines="0" NumberOfStrips="0" NumberOfPolys="950">
		<PointData Normals="Normals">
		<DataArray type="Float32" Name="Normals" NumberOfComponents="3" format="ascii">
			-0.108350 -0.988857  0.102094
			-0.108350 -0.988857  0.102094
			-0.108350 -0.988857  0.102094
			 0.225078  0.961456  0.157928
			 0.225078  0.961456  0.157928
			 0.225078  0.961456  0.157928
			 0.161222  0.976045  0.146095
			 0.161222  0.976045  0.146095
			 0.161222  0.976045  0.146095
			 0.352297  0.931699  0.088458
			 0.352297  0.931699  0.088458
			 0.352297  0.931699  0.088458
			 0.408038  0.905027  0.120127
			 0.408038  0.905027  0.120127
			 0.408038  0.905027  0.120127
			 0.438051  0.894366  0.090663
			 0.438051  0.894366  0.090663
			 0.438051  0.894366  0.090663
			 0.314939  0.936046  0.156942
			 0.314939  0.936046  0.156942
			 0.314939  0.936046  0.156942
			 0.410270  0.889703  0.200270
			 0.410270  0.889703  0.200270
			 0.410270  0.889703  0.200270
			-0.216361 -0.935910  0.277958
			-0.216361 -0.935910  0.277958
			-0.216361 -0.935910  0.277958
			-0.496252 -0.831028  0.251250
			-0.496252 -0.831028  0.251250
			-0.496252 -0.831028  0.251250
			-0.481095 -0.876214  0.028214
			-0.481095 -0.876214  0.028214
			-0.481095 -0.876214  0.028214
			 0.320199  0.940283  0.115497
			 0.320199  0.940283  0.115497
			 0.320199  0.940283  0.115497
			 0.589655  0.805159  0.063455
			 0.589655  0.805159  0.063455
			 0.589655  0.805159  0.063455
			 0.624450  0.779826  0.043976
			 0.624450  0.779826  0.043976
			 0.624450  0.779826  0.043976
			 0.628569  0.775507  0.059074
			 0.628569  0.775507  0.059074
			 0.628569  0.775507  0.059074
			 0.711256  0.680510  0.176127
			 0.711256  0.680510  0.176127
			 0.711256  0.680510  0.176127
			-0.423527 -0.830294  0.362267
			-0.423527 -0.830294  0.362267
			-0.423527 -0.830294  0.362267
			-0.447820 -0.891830  0.063996
			-0.447820 -0.891830  0.063996
			-0.447820 -0.891830  0.063996
			 0.559969  0.827400  0.042938
			 0.559969  0.827400  0.042938
			 0.559969  0.827400  0.042938
			 0.607185  0.790907  0.076103
			 0.607185  0.790907  0.076103
			 0.607185  0.790907  0.076103
			 0.608058  0.791140  0.066048
			 0.608058  0.791140  0.066048
			 0.608058  0.791140  0.066048
			-0.420291 -0.905869  0.052510
			-0.420291 -0.905869  0.052510
			-0.420291 -0.905869  0.052510
			 0.614679  0.785967  0.066525
			 0.614679  0.785967  0.066525
			 0.614679  0.785967  0.066525
			 0.612788  0.786975  0.071840
			 0.612788  0.786975  0.071840
			 0.612788  0.786975  0.071840
			 0.781487  0.590884  0.200337
			 0.781487  0.590884  0.200337
			 0.781487  0.590884  0.200337
			-0.826241 -0.562643  0.027540
			-0.826241 -0.562643  0.027540
			-0.826241 -0.562643  0.027540
			-0.761141 -0.648349  0.017553
			-0.761141 -0.648349  0.017553
			-0.761141 -0.648349  0.017553
			-0.775425 -0.631398  0.007256
			-0.775425 -0.631398  0.007256
			-0.775425 -0.631398  0.007256
			 0.761673  0.647785  0.015132
			 0.761673  0.647785  0.015132
			 0.761673  0.647785  0.015132
			 0.859230  0.510775  0.028853
			 0.859230  0.510775  0.028853
			 0.859230  0.510775  0.028853
			-0.470662  0.882226  0.012453
			-0.470662  0.882226  0.012453
			-0.470662  0.882226  0.012453
			-0.445485  0.873474  0.196433
			-0.445485  0.873474  0.196433
			-0.445485  0.873474  0.196433
			-0.319038  0.938432  0.132515
			-0.319038  0.938432  0.132515
			-0.319038  0.938432  0.132515
			-0.330641  0.923065  0.196537
			-0.330641  0.923065  0.196537
			-0.330641  0.923065  0.196537
			-0.257805  0.935163  0.242914
			-0.257805  0.935163  0.242914
			-0.257805  0.935163  0.242914
			-0.217962  0.924541  0.312596
			-0.217962  0.924541  0.312596
			-0.217962  0.924541  0.312596
			-0.242541  0.921928  0.302030
			-0.242541  0.921928  0.302030
			-0.242541  0.921928  0.302030
			-0.227923  0.908695  0.349748
			-0.227923  0.908695  0.349748
			-0.227923  0.908695  0.349748
			-0.201989  0.908102  0.366814
			-0.201989  0.908102  0.366814
			-0.201989  0.908102  0.366814
			-0.150728  0.762564  0.629109
			-0.150728  0.762564  0.629109
			-0.150728  0.762564  0.629109
			 0.466983 -0.786753  0.403666
			 0.466983 -0.786753  0.403666
			 0.466983 -0.786753  0.403666
			 0.472631 -0.847990  0.239860
			 0.472631 -0.847990  0.239860
			 0.472631 -0.847990  0.239860
			 0.385649 -0.905566  0.176707
			 0.385649 -0.905566  0.176707
			 0.385649 -0.905566  0.176707
			 0.406515 -0.884095  0.230480
			 0.406515 -0.884095  0.230480
			 0.406515 -0.884095  0.230480
			-0.378341  0.907404  0.182964
			-0.378341  0.907404  0.182964
			-0.378341  0.907404  0.182964
			 0.154938 -0.981653  0.111135
			 0.154938 -0.981653  0.111135
			 0.154938 -0.981653  0.111135
			-0.094877  0.990964  0.094806
			-0.094877  0.990964  0.094806
			-0.094877  0.990964  0.094806
			 0.394369  0.866820  0.305116
			 0.394369  0.866820  0.305116
			 0.394369  0.866820  0.305116
			 0.329581  0.862285  0.384502
			 0.329581  0.862285  0.384502
			 0.329581  0.862285  0.384502
			 0.387982  0.647700  0.655709
			 0.387982  0.647700  0.655709
			 0.387982  0.647700  0.655709
			 0.406019  0.625768  0.666005
			 0.406019  0.625768  0.666005
			 0.406019  0.625768  0.666005
			 0.108290 -0.912385  0.394750
			 0.108290 -0.912385  0.394750
			 0.108290 -0.912385  0.394750
			 0.171903 -0.846007  0.504699
			 0.171903 -0.846007  0.504699
			 0.171903 -0.846007  0.504699
			 0.155360 -0.921100  0.356984
			 0.155360 -0.921100  0.356984
			 0.155360 -0.921100  0.356984
			 0.716224  0.641413  0.274977
			 0.716224  0.641413  0.274977
			 0.716224  0.641413  0.274977
			 0.784858  0.400458  0.472897
			 0.784858  0.400458  0.472897
			 0.784858  0.400458  0.472897
			 0.768114  0.375543  0.518622
			 0.768114  0.375543  0.518622
			 0.768114  0.375543  0.518622
			 0.091285 -0.890609  0.445514
			 0.091285 -0.890609  0.445514
			 0.091285 -0.890609  0.445514
			 0.088359 -0.906873  0.412036
			 0.088359 -0.906873  0.412036
			 0.088359 -0.906873  0.412036
			 0.042553 -0.870200  0.490858
			 0.042553 -0.870200  0.490858
			 0.042553 -0.870200  0.490858
			 0.039350 -0.877520  0.477923
			 0.039350 -0.877520  0.477923
			 0.039350 -0.877520  0.477923
			-0.299026 -0.880576  0.367654
			-0.299026 -0.880576  0.367654
			-0.299026 -0.880576  0.367654
			 0.826945  0.500904  0.255455
			 0.826945  0.500904  0.255455
			 0.826945  0.500904  0.255455
			 0.694339  0.261488  0.670461
			 0.694339  0.261488  0.670461
			 0.694339  0.261488  0.670461
			 0.913402  0.204567  0.351923
			 0.913402  0.204567  0.351923
			 0.913402  0.204567  0.351923
			-0.369493 -0.630352  0.682738
			-0.369493 -0.630352  0.682738
			-0.369493 -0.630352  0.682738
			-0.363330 -0.752212  0.549699
			-0.363330 -0.752212  0.549699
			-0.363330 -0.752212  0.549699
			-0.660270 -0.717240  0.222735
			-0.660270 -0.717240  0.222735
			-0.660270 -0.717240  0.222735
			-0.698419 -0.459277  0.548886
			-0.698419 -0.459277  0.548886
			-0.698419 -0.459277  0.548886
			-0.667480 -0.560510  0.490204
			-0.667480 -0.560510  0.490204
			-0.667480 -0.560510  0.490204
			-0.888775 -0.419582  0.184471
			-0.888775 -0.419582  0.184471
			-0.888775 -0.419582  0.184471
			 0.922714  0.352615  0.155763
			 0.922714  0.352615  0.155763
			 0.922714  0.352615  0.155763
			 0.941736  0.333395  0.044504
			 0.941736  0.333395  0.044504
			 0.941736  0.333395  0.044504
			 0.882942  0.199666  0.424908
			 0.882942  0.199666  0.424908
			 0.882942  0.199666  0.424908
			 0.993745  0.089760  0.066431
			 0.993745  0.089760  0.066431
			 0.993745  0.089760  0.066431
			 0.897232 -0.057965  0.437737
			 0.897232 -0.057965  0.437737
			 0.897232 -0.057965  0.437737
			-0.842705  0.034059  0.537298
			-0.842705  0.034059  0.537298
			-0.842705  0.034059  0.537298
			-0.940434  0.071852  0.332298
			-0.940434  0.071852  0.332298
			-0.940434  0.071852  0.332298
			-0.926492 -0.008132  0.376226
			-0.926492 -0.008132  0.376226
			-0.926492 -0.008132  0.376226
			-0.966449  0.006904  0.256765
			-0.966449  0.006904  0.256765
			-0.966449  0.006904  0.256765
			-0.960550 -0.039468  0.275291
			-0.960550 -0.039468  0.275291
			-0.960550 -0.039468  0.275291
			-0.981702 -0.052001  0.183186
			-0.981702 -0.052001  0.183186
			-0.981702 -0.052001  0.183186
			-0.979722 -0.070031  0.187724
			-0.979722 -0.070031  0.187724
			-0.979722 -0.070031  0.187724
			-0.990137 -0.100400  0.097721
			-0.990137 -0.100400  0.097721
			-0.990137 -0.100400  0.097721
			-0.996729 -0.049863  0.063608
			-0.996729 -0.049863  0.063608
			-0.996729 -0.049863  0.063608
			-0.998227 -0.058603  0.010384
			-0.998227 -0.058603  0.010384
			-0.998227 -0.058603  0.010384
			-0.651491  0.729248  0.209180
			-0.651491  0.729248  0.209180
			-0.651491  0.729248  0.209180
			-0.654190  0.714523  0.247976
			-0.654190  0.714523  0.247976
			-0.654190  0.714523  0.247976
			-0.561755  0.757580  0.332423
			-0.561755  0.757580  0.332423
			-0.561755  0.757580  0.332423
			-0.502349  0.808294  0.307093
			-0.502349  0.808294  0.307093
			-0.502349  0.808294  0.307093
			-0.550768  0.723212  0.416677
			-0.550768  0.723212  0.416677
			-0.550768  0.723212  0.416677
			-0.370666  0.625309  0.686728
			-0.370666  0.625309  0.686728
			-0.370666  0.625309  0.686728
			-0.200991  0.913148  0.354630
			-0.200991  0.913148  0.354630
			-0.200991  0.913148  0.354630
			-0.076975  0.657329  0.749662
			-0.076975  0.657329  0.749662
			-0.076975  0.657329  0.749662
			 0.762147 -0.615693  0.200138
			 0.762147 -0.615693  0.200138
			 0.762147 -0.615693  0.200138
			 0.710206 -0.643675  0.285114
			 0.710206 -0.643675  0.285114
			 0.710206 -0.643675  0.285114
			-0.792405  0.609994  0.001668
			-0.792405  0.609994  0.001668
			-0.792405  0.609994  0.001668
			 0.348366  0.456941  0.818442
			 0.348366  0.456941  0.818442
			 0.348366  0.456941  0.818442
			 0.310512  0.522933  0.793803
			 0.310512  0.522933  0.793803
			 0.310512  0.522933  0.793803
			 0.587437 -0.679843  0.439013
			 0.587437 -0.679843  0.439013
			 0.587437 -0.679843  0.439013
			 0.694984  0.184851  0.694858
			 0.694984  0.184851  0.694858
			 0.694984  0.184851  0.694858
			 0.505620 -0.654212  0.562454
			 0.505620 -0.654212  0.562454
			 0.505620 -0.654212  0.562454
			 0.452602 -0.776559  0.438301
			 0.452602 -0.776559  0.438301
			 0.452602 -0.776559  0.438301
			 0.777601  0.181205  0.602081
			 0.777601  0.181205  0.602081
			 0.777601  0.181205  0.602081
			 0.771748  0.175913  0.611113
			 0.771748  0.175913  0.611113
			 0.771748  0.175913  0.611113
			 0.318627 -0.716235  0.620873
			 0.318627 -0.716235  0.620873
			 0.318627 -0.716235  0.620873
			 0.314174 -0.734637  0.601335
			 0.314174 -0.734637  0.601335
			 0.314174 -0.734637  0.601335
			 0.858562  0.071809  0.507656
			 0.858562  0.071809  0.507656
			 0.858562  0.071809  0.507656
			 0.098334 -0.629205  0.770994
			 0.098334 -0.629205  0.770994
			 0.098334 -0.629205  0.770994
			 0.062157 -0.796833  0.600994
			 0.062157 -0.796833  0.600994
			 0.062157 -0.796833  0.600994
			 0.893306 -0.080337  0.442210
			 0.893306 -0.080337  0.442210
			 0.893306 -0.080337  0.442210
			 0.971570 -0.221167  0.084482
			 0.971570 -0.221167  0.084482
			 0.971570 -0.221167  0.084482
			 0.946940 -0.238946  0.214965
			 0.946940 -0.238946  0.214965
			 0.946940 -0.238946  0.214965
			-0.900646  0.191262  0.390199
			-0.900646  0.191262  0.390199
			-0.900646  0.191262  0.390199
			-0.926101  0.163507  0.340003
			-0.926101  0.163507  0.340003
			-0.926101  0.163507  0.340003
			-0.955032  0.169997  0.242928
			-0.955032  0.169997  0.242928
			-0.955032  0.169997  0.242928
			-0.617593  0.694796  0.368560
			-0.617593  0.694796  0.368560
			-0.617593  0.694796  0.368560
			-0.577499  0.708616  0.405410
			-0.577499  0.708616  0.405410
			-0.577499  0.708616  0.405410
			-0.378419  0.421098  0.824303
			-0.378419  0.421098  0.824303
			-0.378419  0.421098  0.824303
			-0.251291  0.754162  0.606706
			-0.251291  0.754162  0.606706
			-0.251291  0.754162  0.606706
			-0.137905  0.578058  0.804258
			-0.137905  0.578058  0.804258
			-0.137905  0.578058  0.804258
			 0.359766  0.343110  0.867666
			 0.359766  0.343110  0.867666
			 0.359766  0.343110  0.867666
			 0.309654  0.338454  0.888574
			 0.309654  0.338454  0.888574
			 0.309654  0.338454  0.888574
			 0.675029 -0.621034  0.398312
			 0.675029 -0.621034  0.398312
			 0.675029 -0.621034  0.398312
			 0.627615  0.098690  0.772243
			 0.627615  0.098690  0.772243
			 0.627615  0.098690  0.772243
			 0.621761  0.124566  0.773238
			 0.621761  0.124566  0.773238
			 0.621761  0.124566  0.773238
			 0.766059  0.092073  0.636142
			 0.766059  0.092073  0.636142
			 0.766059  0.092073  0.636142
			 0.691841  0.055623  0.719904
			 0.691841  0.055623  0.719904
			 0.691841  0.055623  0.719904
			 0.363505 -0.695097  0.620246
			 0.363505 -0.695097  0.620246
			 0.363505 -0.695097  0.620246
			 0.871521 -0.022250  0.489853
			 0.871521 -0.022250  0.489853
			 0.871521 -0.022250  0.489853
			 0.848796 -0.017664  0.528425
			 0.848796 -0.017664  0.528425
			 0.848796 -0.017664  0.528425
			 0.238242 -0.680200  0.693230
			 0.238242 -0.680200  0.693230
			 0.238242 -0.680200  0.693230
			 0.288742 -0.809212  0.511668
			 0.288742 -0.809212  0.511668
			 0.288742 -0.809212  0.511668
			 0.909080 -0.093471  0.406002
			 0.909080 -0.093471  0.406002
			 0.909080 -0.093471  0.406002
			-0.718908  0.058592  0.692632
			-0.718908  0.058592  0.692632
			-0.718908  0.058592  0.692632
			-0.692227  0.063224  0.718905
			-0.692227  0.063224  0.718905
			-0.692227  0.063224  0.718905
			-0.733299 -0.011016  0.679817
			-0.733299 -0.011016  0.679817
			-0.733299 -0.011016  0.679817
			-0.828060  0.113521  0.549025
			-0.828060  0.113521  0.549025
			-0.828060  0.113521  0.549025
			-0.846605  0.160003  0.507601
			-0.846605  0.160003  0.507601
			-0.846605  0.160003  0.507601
			-0.894763  0.179574  0.408843
			-0.894763  0.179574  0.408843
			-0.894763  0.179574  0.408843
			 0.971389 -0.183796  0.150407
			 0.971389 -0.183796  0.150407
			 0.971389 -0.183796  0.150407
			 0.932297 -0.197240  0.303182
			 0.932297 -0.197240  0.303182
			 0.932297 -0.197240  0.303182
			-0.934930  0.166140  0.313533
			-0.934930  0.166140  0.313533
			-0.934930  0.166140  0.313533
			-0.697759  0.628603  0.343498
			-0.697759  0.628603  0.343498
			-0.697759  0.628603  0.343498
			 0.732766 -0.673558  0.096815
			 0.732766 -0.673558  0.096815
			 0.732766 -0.673558  0.096815
			 0.716137 -0.661415  0.222885
			 0.716137 -0.661415  0.222885
			 0.716137 -0.661415  0.222885
			 0.170343  0.037136  0.984685
			 0.170343  0.037136  0.984685
			 0.170343  0.037136  0.984685
			 0.626177 -0.685991  0.370565
			 0.626177 -0.685991  0.370565
			 0.626177 -0.685991  0.370565
			 0.631753 -0.696866  0.339508
			 0.631753 -0.696866  0.339508
			 0.631753 -0.696866  0.339508
			 0.522644 -0.083420  0.848460
			 0.522644 -0.083420  0.848460
			 0.522644 -0.083420  0.848460
			 0.393969 -0.109462  0.912582
			 0.393969 -0.109462  0.912582
			 0.393969 -0.109462  0.912582
			 0.563545 -0.685918  0.460363
			 0.563545 -0.685918  0.460363
			 0.563545 -0.685918  0.460363
			 0.661192 -0.052251  0.748395
			 0.661192 -0.052251  0.748395
			 0.661192 -0.052251  0.748395
			 0.531029 -0.085248  0.843054
			 0.531029 -0.085248  0.843054
			 0.531029 -0.085248  0.843054
			 0.450819 -0.658996  0.602068
			 0.450819 -0.658996  0.602068
			 0.450819 -0.658996  0.602068
			 0.703338 -0.101070  0.703633
			 0.703338 -0.101070  0.703633
			 0.703338 -0.101070  0.703633
			-0.680365 -0.133984  0.720522
			-0.680365 -0.133984  0.720522
			-0.680365 -0.133984  0.720522
			-0.855942  0.145055  0.496310
			-0.855942  0.145055  0.496310
			-0.855942  0.145055  0.496310
			-0.928346  0.061084  0.366663
			-0.928346  0.061084  0.366663
			-0.928346  0.061084  0.366663
			-0.961212  0.223998  0.160925
			-0.961212  0.223998  0.160925
			-0.961212  0.223998  0.160925
			-0.965683  0.240628  0.097745
			-0.965683  0.240628  0.097745
			-0.965683  0.240628  0.097745
			-0.969648  0.232257  0.076412
			-0.969648  0.232257  0.076412
			-0.969648  0.232257  0.076412
			 0.966737 -0.253482  0.034146
			 0.966737 -0.253482  0.034146
			 0.966737 -0.253482  0.034146
			 0.963474 -0.263350  0.048627
			 0.963474 -0.263350  0.048627
			 0.963474 -0.263350  0.048627
			-0.731016  0.643324  0.227485
			-0.731016  0.643324  0.227485
			-0.731016  0.643324  0.227485
			-0.737997  0.626506  0.250699
			-0.737997  0.626506  0.250699
			-0.737997  0.626506  0.250699
			-0.720042  0.537568  0.438817
			-0.720042  0.537568  0.438817
			-0.720042  0.537568  0.438817
			-0.745926  0.658997  0.096527
			-0.745926  0.658997  0.096527
			-0.745926  0.658997  0.096527
			-0.746070  0.655052  0.119528
			-0.746070  0.655052  0.119528
			-0.746070  0.655052  0.119528
			-0.746369  0.654450  0.120950
			-0.746369  0.654450  0.120950
			-0.746369  0.654450  0.120950
			-0.604487  0.504176  0.616767
			-0.604487  0.504176  0.616767
			-0.604487  0.504176  0.616767
			-0.672922  0.503157  0.542225
			-0.672922  0.503157  0.542225
			-0.672922  0.503157  0.542225
			-0.401482  0.297802  0.866098
			-0.401482  0.297802  0.866098
			-0.401482  0.297802  0.866098
			-0.381200  0.245588  0.891276
			-0.381200  0.245588  0.891276
			-0.381200  0.245588  0.891276
			-0.092867  0.010232  0.995626
			-0.092867  0.010232  0.995626
			-0.092867  0.010232  0.995626
			 0.582972 -0.680217  0.444351
			 0.582972 -0.680217  0.444351
			 0.582972 -0.680217  0.444351
			 0.451684 -0.652409  0.608559
			 0.451684 -0.652409  0.608559
			 0.451684 -0.652409  0.608559
			 0.683255 -0.161466  0.712104
			 0.683255 -0.161466  0.712104
			 0.683255 -0.161466  0.712104
			 0.602036 -0.172734  0.779561
			 0.602036 -0.172734  0.779561
			 0.602036 -0.172734  0.779561
			 0.435834 -0.641765  0.631020
			 0.435834 -0.641765  0.631020
			 0.435834 -0.641765  0.631020
			 0.389872 -0.550868  0.737932
			 0.389872 -0.550868  0.737932
			 0.389872 -0.550868  0.737932
			 0.881441 -0.204308  0.425816
			 0.881441 -0.204308  0.425816
			 0.881441 -0.204308  0.425816
			 0.722347 -0.239028  0.648907
			 0.722347 -0.239028  0.648907
			 0.722347 -0.239028  0.648907
			-0.148076 -0.147538  0.977909
			-0.148076 -0.147538  0.977909
			-0.148076 -0.147538  0.977909
			 0.927199 -0.229986  0.295649
			 0.927199 -0.229986  0.295649
			 0.927199 -0.229986  0.295649
			 0.893924 -0.248772  0.372843
			 0.893924 -0.248772  0.372843
			 0.893924 -0.248772  0.372843
			-0.688443  0.018707  0.725049
			-0.688443  0.018707  0.725049
			-0.688443  0.018707  0.725049
			-0.879745 -0.012392  0.475283
			-0.879745 -0.012392  0.475283
			-0.879745 -0.012392  0.475283
			 0.969509 -0.241380  0.042282
			 0.969509 -0.241380  0.042282
			 0.969509 -0.241380  0.042282
			 0.928681 -0.278847  0.244532
			 0.928681 -0.278847  0.244532
			 0.928681 -0.278847  0.244532
			-0.869976 -0.035134  0.491841
			-0.869976 -0.035134  0.491841
			-0.869976 -0.035134  0.491841
			-0.949492  0.312847  0.024330
			-0.949492  0.312847  0.024330
			-0.949492  0.312847  0.024330
			-0.756595  0.653542  0.021112
			-0.756595  0.653542  0.021112
			-0.756595  0.653542  0.021112
			 0.667951 -0.683556  0.294266
			 0.667951 -0.683556  0.294266
			 0.667951 -0.683556  0.294266
			 0.712498 -0.686109  0.146973
			 0.712498 -0.686109  0.146973
			 0.712498 -0.686109  0.146973
			-0.093038  0.005772  0.995646
			-0.093038  0.005772  0.995646
			-0.093038  0.005772  0.995646
			 0.380257 -0.564943  0.732286
			 0.380257 -0.564943  0.732286
			 0.380257 -0.564943  0.732286
			 0.659644 -0.379466  0.648749
			 0.659644 -0.379466  0.648749
			 0.659644 -0.379466  0.648749
			-0.000053 -0.305253  0.952271
			-0.000053 -0.305253  0.952271
			-0.000053 -0.305253  0.952271
			-0.144631 -0.310516  0.939501
			-0.144631 -0.310516  0.939501
			-0.144631 -0.310516  0.939501
			 0.778506 -0.460818  0.426117
			 0.778506 -0.460818  0.426117
			 0.778506 -0.460818  0.426117
			-0.308821 -0.190577  0.931832
			-0.308821 -0.190577  0.931832
			-0.308821 -0.190577  0.931832
			-0.814292 -0.075349  0.575544
			-0.814292 -0.075349  0.575544
			-0.814292 -0.075349  0.575544
			 0.883681 -0.406183  0.232643
			 0.883681 -0.406183  0.232643
			 0.883681 -0.406183  0.232643
			 0.866959 -0.471887  0.160327
			 0.866959 -0.471887  0.160327
			 0.866959 -0.471887  0.160327
			-0.914681  0.402662  0.034968
			-0.914681  0.402662  0.034968
			-0.914681  0.402662  0.034968
			 0.881231 -0.471175  0.037752
			 0.881231 -0.471175  0.037752
			 0.881231 -0.471175  0.037752
			-0.950283  0.276626  0.142972
			-0.950283  0.276626  0.142972
			-0.950283  0.276626  0.142972
			-0.761065  0.495705  0.418397
			-0.761065  0.495705  0.418397
			-0.761065  0.495705  0.418397
			-0.752751  0.368014  0.545831
			-0.752751  0.368014  0.545831
			-0.752751  0.368014  0.545831
			-0.716158  0.284263  0.637426
			-0.716158  0.284263  0.637426
			-0.716158  0.284263  0.637426
			-0.739899  0.355603  0.571048
			-0.739899  0.355603  0.571048
			-0.739899  0.355603  0.571048
			-0.484715  0.137866  0.863739
			-0.484715  0.137866  0.863739
			-0.484715  0.137866  0.863739
			-0.368803  0.019811  0.929296
			-0.368803  0.019811  0.929296
			-0.368803  0.019811  0.929296
			-0.259036 -0.026520  0.965504
			-0.259036 -0.026520  0.965504
			-0.259036 -0.026520  0.965504
			 0.569194 -0.751072  0.334527
			 0.569194 -0.751072  0.334527
			 0.569194 -0.751072  0.334527
			 0.497954 -0.729618  0.468720
			 0.497954 -0.729618  0.468720
			 0.497954 -0.729618  0.468720
			 0.507163 -0.749299  0.425837
			 0.507163 -0.749299  0.425837
			 0.507163 -0.749299  0.425837
			 0.232460 -0.225743  0.946046
			 0.232460 -0.225743  0.946046
			 0.232460 -0.225743  0.946046
			 0.190550 -0.220025  0.956703
			 0.190550 -0.220025  0.956703
			 0.190550 -0.220025  0.956703
			 0.344347 -0.619282  0.705631
			 0.344347 -0.619282  0.705631
			 0.344347 -0.619282  0.705631
			 0.382681 -0.692069  0.612042
			 0.382681 -0.692069  0.612042
			 0.382681 -0.692069  0.612042
			 0.456899 -0.325761  0.827721
			 0.456899 -0.325761  0.827721
			 0.456899 -0.325761  0.827721
			 0.337166 -0.293164  0.894636
			 0.337166 -0.293164  0.894636
			 0.337166 -0.293164  0.894636
			 0.232990 -0.549957  0.802037
			 0.232990 -0.549957  0.802037
			 0.232990 -0.549957  0.802037
			 0.559198 -0.401713  0.725207
			 0.559198 -0.401713  0.725207
			 0.559198 -0.401713  0.725207
			 0.013169 -0.373018  0.927731
			 0.013169 -0.373018  0.927731
			 0.013169 -0.373018  0.927731
			 0.778896 -0.453514  0.433181
			 0.778896 -0.453514  0.433181
			 0.778896 -0.453514  0.433181
			-0.119171 -0.262875  0.957442
			-0.119171 -0.262875  0.957442
			-0.119171 -0.262875  0.957442
			-0.364454 -0.272484  0.890464
			-0.364454 -0.272484  0.890464
			-0.364454 -0.272484  0.890464
			-0.493375 -0.120859  0.861379
			-0.493375 -0.120859  0.861379
			-0.493375 -0.120859  0.861379
			-0.822836 -0.031425  0.567410
			-0.822836 -0.031425  0.567410
			-0.822836 -0.031425  0.567410
			-0.785179 -0.085834  0.613292
			-0.785179 -0.085834  0.613292
			-0.785179 -0.085834  0.613292
			-0.928340  0.061034  0.366687
			-0.928340  0.061034  0.366687
			-0.928340  0.061034  0.366687
			-0.952184  0.163386  0.258166
			-0.952184  0.163386  0.258166
			-0.952184  0.163386  0.258166
			-0.955308  0.168154  0.243126
			-0.955308  0.168154  0.243126
			-0.955308  0.168154  0.243126
			-0.917663  0.396701  0.022849
			-0.917663  0.396701  0.022849
			-0.917663  0.396701  0.022849
			-0.775268  0.607355  0.173434
			-0.775268  0.607355  0.173434
			-0.775268  0.607355  0.173434
			-0.765279  0.591189  0.254644
			-0.765279  0.591189  0.254644
			-0.765279  0.591189  0.254644
			 0.763942 -0.634889  0.115360
			 0.763942 -0.634889  0.115360
			 0.763942 -0.634889  0.115360
			 0.670942 -0.699208  0.246872
			 0.670942 -0.699208  0.246872
			 0.670942 -0.699208  0.246872
			-0.066329 -0.189580  0.979622
			-0.066329 -0.189580  0.979622
			-0.066329 -0.189580  0.979622
			 0.106179 -0.235401  0.966081
			 0.106179 -0.235401  0.966081
			 0.106179 -0.235401  0.966081
			 0.563903 -0.320142  0.761264
			 0.563903 -0.320142  0.761264
			 0.563903 -0.320142  0.761264
			 0.790974 -0.470410  0.391247
			 0.790974 -0.470410  0.391247
			 0.790974 -0.470410  0.391247
			 0.707847 -0.459133  0.536795
			 0.707847 -0.459133  0.536795
			 0.707847 -0.459133  0.536795
			-0.159801 -0.339746  0.926842
			-0.159801 -0.339746  0.926842
			-0.159801 -0.339746  0.926842
			 0.833178 -0.501431  0.233196
			 0.833178 -0.501431  0.233196
			 0.833178 -0.501431  0.233196
			 0.824734 -0.475766  0.305714
			 0.824734 -0.475766  0.305714
			 0.824734 -0.475766  0.305714
			-0.437799 -0.061879  0.896941
			-0.437799 -0.061879  0.896941
			-0.437799 -0.061879  0.896941
			 0.910674 -0.395971  0.117813
			 0.910674 -0.395971  0.117813
			 0.910674 -0.395971  0.117813
			-0.767069  0.043151  0.640112
			-0.767069  0.043151  0.640112
			-0.767069  0.043151  0.640112
			-0.897764  0.104801  0.427829
			-0.897764  0.104801  0.427829
			-0.897764  0.104801  0.427829
			-0.954580  0.265064  0.136082
			-0.954580  0.265064  0.136082
			-0.954580  0.265064  0.136082
			 0.955792 -0.289665  0.050563
			 0.955792 -0.289665  0.050563
			 0.955792 -0.289665  0.050563
			-0.934037  0.356899  0.014066
			-0.934037  0.356899  0.014066
			-0.934037  0.356899  0.014066
			 0.785307 -0.618496  0.027493
			 0.785307 -0.618496  0.027493
			 0.785307 -0.618496  0.027493
			-0.777717  0.628611  0.001953
			-0.777717  0.628611  0.001953
			-0.777717  0.628611  0.001953
			-0.722157  0.401327  0.563405
			-0.722157  0.401327  0.563405
			-0.722157  0.401327  0.563405
			-0.728794  0.441254  0.523597
			-0.728794  0.441254  0.523597
			-0.728794  0.441254  0.523597
			-0.609450  0.310129  0.729652
			-0.609450  0.310129  0.729652
			-0.609450  0.310129  0.729652
			 0.707098 -0.658213  0.258396
			 0.707098 -0.658213  0.258396
			 0.707098 -0.658213  0.258396
			 0.637961 -0.634205  0.436795
			 0.637961 -0.634205  0.436795
			 0.637961 -0.634205  0.436795
			 0.637168 -0.641573  0.427084
			 0.637168 -0.641573  0.427084
			 0.637168 -0.641573  0.427084
			 0.423446 -0.514184  0.745861
			 0.423446 -0.514184  0.745861
			 0.423446 -0.514184  0.745861
			 0.445968 -0.511998  0.734146
			 0.445968 -0.511998  0.734146
			 0.445968 -0.511998  0.734146
			 0.272332 -0.392177  0.878653
			 0.272332 -0.392177  0.878653
			 0.272332 -0.392177  0.878653
			 0.312912 -0.471340  0.824576
			 0.312912 -0.471340  0.824576
			 0.312912 -0.471340  0.824576
			 0.074931 -0.302260  0.950276
			 0.074931 -0.302260  0.950276
			 0.074931 -0.302260  0.950276
			-0.000792 -0.311260  0.950325
			-0.000792 -0.311260  0.950325
			-0.000792 -0.311260  0.950325
			-0.276447 -0.088401  0.956955
			-0.276447 -0.088401  0.956955
			-0.276447 -0.088401  0.956955
			-0.435196 -0.107748  0.893865
			-0.435196 -0.107748  0.893865
			-0.435196 -0.107748  0.893865
			-0.453751 -0.090939  0.886476
			-0.453751 -0.090939  0.886476
			-0.453751 -0.090939  0.886476
			-0.794472  0.041935  0.605851
			-0.794472  0.041935  0.605851
			-0.794472  0.041935  0.605851
			-0.903111  0.132150  0.408568
			-0.903111  0.132150  0.408568
			-0.903111  0.132150  0.408568
			-0.955552  0.153373  0.251787
			-0.955552  0.153373  0.251787
			-0.955552  0.153373  0.251787
			-0.960770  0.259861  0.096915
			-0.960770  0.259861  0.096915
			-0.960770  0.259861  0.096915
			-0.792724  0.587893  0.161153
			-0.792724  0.587893  0.161153
			-0.792724  0.587893  0.161153
			-0.778834  0.543170  0.313662
			-0.778834  0.543170  0.313662
			-0.778834  0.543170  0.313662
			-0.774940  0.508797  0.374958
			-0.774940  0.508797  0.374958
			-0.774940  0.508797  0.374958
			-0.800517  0.589561  0.107655
			-0.800517  0.589561  0.107655
			-0.800517  0.589561  0.107655
			 0.776601 -0.595427  0.205808
			 0.776601 -0.595427  0.205808
			 0.776601 -0.595427  0.205808
			 0.128112 -0.155440  0.979503
			 0.128112 -0.155440  0.979503
			 0.128112 -0.155440  0.979503
			 0.325792 -0.307177  0.894149
			 0.325792 -0.307177  0.894149
			 0.325792 -0.307177  0.894149
			 0.226704 -0.197209  0.953789
			 0.226704 -0.197209  0.953789
			 0.226704 -0.197209  0.953789
			 0.427032 -0.334153  0.840230
			 0.427032 -0.334153  0.840230
			 0.427032 -0.334153  0.840230
			 0.093671 -0.333679  0.938021
			 0.093671 -0.333679  0.938021
			 0.093671 -0.333679  0.938021
			 0.728267 -0.371959  0.575564
			 0.728267 -0.371959  0.575564
			 0.728267 -0.371959  0.575564
			 0.826616 -0.409447  0.386083
			 0.826616 -0.409447  0.386083
			 0.826616 -0.409447  0.386083
			-0.301348 -0.219142  0.927990
			-0.301348 -0.219142  0.927990
			-0.301348 -0.219142  0.927990
			 0.937981 -0.323972  0.123424
			 0.937981 -0.323972  0.123424
			 0.937981 -0.323972  0.123424
			 0.885774 -0.386075  0.257587
			 0.885774 -0.386075  0.257587
			 0.885774 -0.386075  0.257587
			-0.432468 -0.086227  0.897517
			-0.432468 -0.086227  0.897517
			-0.432468 -0.086227  0.897517
			 0.954426 -0.293767  0.052646
			 0.954426 -0.293767  0.052646
			 0.954426 -0.293767  0.052646
			 0.941525 -0.302167  0.149082
			 0.941525 -0.302167  0.149082
			 0.941525 -0.302167  0.149082
			-0.952475  0.205844  0.224542
			-0.952475  0.205844  0.224542
			-0.952475  0.205844  0.224542
			-0.800930  0.566507  0.193856
			-0.800930  0.566507  0.193856
			-0.800930  0.566507  0.193856
			-0.775243  0.489187  0.399618
			-0.775243  0.489187  0.399618
			-0.775243  0.489187  0.399618
			-0.816988  0.572697  0.067440
			-0.816988  0.572697  0.067440
			-0.816988  0.572697  0.067440
			-0.690601  0.456017  0.561355